CG model

        1000 atoms

        1  atom types

          0.0000000000     52.8839740000    xlo xhi
          0.0000000000     52.8839740000    ylo yhi
          0.0000000000     52.8839740000    zlo zhi

 Masses

        1           78.1134

 Atoms

         1          1          1     0.0000         4.3920460000        10.0604700000        16.7568490000
         2          2          1     0.0000        42.2572810000        32.3139010000         2.2221780000
         3          3          1     0.0000        40.1475230000        16.8018040000        26.5605770000
         4          4          1     0.0000        20.3971310000        38.6657990000        46.3295870000
         5          5          1     0.0000        44.0743350000         0.4591170000        18.8777470000
         6          6          1     0.0000        44.3606380000        23.3644920000         1.6586790000
         7          7          1     0.0000        25.2456900000        47.0725440000        51.4666030000
         8          8          1     0.0000        14.0798810000        47.0683350000        11.0977090000
         9          9          1     0.0000        47.4385810000        23.3969220000        27.8633600000
        10         10          1     0.0000         5.1109650000        -0.2172120000        15.5663910000
        11         11          1     0.0000        35.3371040000        33.5596150000        31.9449130000
        12         12          1     0.0000        31.9097100000        37.0536380000         8.7934000000
        13         13          1     0.0000        21.4334210000         6.5272030000        15.5706960000
        14         14          1     0.0000        14.3247100000        40.0132680000        27.9962770000
        15         15          1     0.0000        36.0115090000        19.1764410000        18.7380770000
        16         16          1     0.0000        27.6827550000        23.8158810000        25.6238860000
        17         17          1     0.0000        21.4670090000        52.7040790000        34.7230780000
        18         18          1     0.0000         0.6914450000        33.4534910000        51.9924830000
        19         19          1     0.0000        20.5472540000        32.8259510000        46.3129010000
        20         20          1     0.0000        27.6264710000        27.5742540000        19.9736400000
        21         21          1     0.0000        12.0824860000        15.1643080000         2.6080550000
        22         22          1     0.0000        26.9513530000        24.7236760000         2.7758920000
        23         23          1     0.0000        29.8962360000        31.1359580000        33.6405920000
        24         24          1     0.0000        50.8151840000        18.5711290000        26.0972920000
        25         25          1     0.0000        14.8901000000        14.7813240000         7.7399040000
        26         26          1     0.0000        49.6931220000        49.0201420000        34.4593060000
        27         27          1     0.0000        32.4520350000         0.9778160000        13.6941820000
        28         28          1     0.0000        29.6292230000        19.8066350000        49.7980380000
        29         29          1     0.0000        35.9122640000        20.4896510000        49.0413670000
        30         30          1     0.0000        47.5896760000        18.7271040000        32.8565360000
        31         31          1     0.0000        25.7200460000        29.3788360000        15.4583470000
        32         32          1     0.0000        44.6304780000         9.6647810000        39.7723420000
        33         33          1     0.0000        45.2089290000        35.0141970000        39.9477710000
        34         34          1     0.0000        18.5133640000        27.8724830000         8.9864030000
        35         35          1     0.0000         1.1262430000        36.9236580000        47.3753460000
        36         36          1     0.0000        40.8271260000         1.2191830000        27.5419140000
        37         37          1     0.0000         1.8532700000        20.4696290000        13.1423360000
        38         38          1     0.0000         2.7170450000         6.5497220000        40.2311630000
        39         39          1     0.0000        29.4623730000        46.3620870000        26.4155640000
        40         40          1     0.0000        31.6199400000        29.4868380000         0.8528910000
        41         41          1     0.0000        11.6632880000        10.3302880000         0.9257130000
        42         42          1     0.0000        27.5563360000        48.9160130000        38.0014540000
        43         43          1     0.0000        47.3473600000         7.6924150000         2.5849900000
        44         44          1     0.0000        23.1308540000         2.0474600000        13.4568400000
        45         45          1     0.0000         6.4810180000        11.7788530000         2.4754480000
        46         46          1     0.0000        36.4085780000        47.3249180000        19.8163010000
        47         47          1     0.0000        47.1877920000        13.9943680000         1.4123660000
        48         48          1     0.0000        42.4770760000        48.1581600000        52.6930100000
        49         49          1     0.0000        27.4970210000        48.7903590000        47.2950270000
        50         50          1     0.0000        28.6881060000         8.6942180000        39.0431350000
        51         51          1     0.0000        47.5590560000         6.1141590000        34.9236050000
        52         52          1     0.0000         9.8119550000        35.6033320000         7.4364840000
        53         53          1     0.0000        20.7507510000        10.2275820000        33.1134040000
        54         54          1     0.0000        19.0086900000        14.8075850000        30.8028080000
        55         55          1     0.0000        39.5046410000        46.1754710000         4.6752420000
        56         56          1     0.0000        42.8966820000        31.0647790000        29.2766900000
        57         57          1     0.0000        19.7337240000         9.2937630000        27.2757320000
        58         58          1     0.0000        33.9845260000        17.2371530000        13.5038780000
        59         59          1     0.0000        52.3971520000        27.8113130000        35.6593950000
        60         60          1     0.0000        38.7980970000        37.9266380000        41.4864650000
        61         61          1     0.0000        13.6101150000        39.0896380000         4.1145190000
        62         62          1     0.0000        42.8532920000        50.3565420000         5.8562410000
        63         63          1     0.0000        31.7588240000        33.1919900000        42.3866730000
        64         64          1     0.0000        11.5071370000        40.3865100000        40.7843630000
        65         65          1     0.0000        25.9385920000        39.8744350000        32.6637690000
        66         66          1     0.0000        17.1765560000        43.7667760000        31.8786510000
        67         67          1     0.0000        25.5682820000        10.3924660000        13.6533240000
        68         68          1     0.0000        51.4380170000        17.0593970000        -0.7119630000
        69         69          1     0.0000         5.9762000000         6.1371830000        45.3321360000
        70         70          1     0.0000        51.7364880000        25.1972230000        27.8015720000
        71         71          1     0.0000         2.7339320000        21.9520620000        41.1372500000
        72         72          1     0.0000        44.6692360000        38.1063450000        51.2978820000
        73         73          1     0.0000        46.3056440000        27.5875600000        39.3273230000
        74         74          1     0.0000        50.4348410000        46.3894420000         5.9799190000
        75         75          1     0.0000        21.6627450000        18.8668830000        47.8607770000
        76         76          1     0.0000        15.7645880000        30.6633010000        44.1961420000
        77         77          1     0.0000         7.6222020000        19.4805170000         3.8388520000
        78         78          1     0.0000        29.4632530000        17.9398320000        34.1660960000
        79         79          1     0.0000        21.6286470000        43.5130510000        19.7912900000
        80         80          1     0.0000        48.1265920000         5.3347730000        47.5790650000
        81         81          1     0.0000        39.8379500000        36.0060970000         0.6551950000
        82         82          1     0.0000        49.1728330000        53.7357010000        46.3685410000
        83         83          1     0.0000        32.8133510000        13.3964460000        24.1052380000
        84         84          1     0.0000        39.0636240000        25.5869990000        35.3101530000
        85         85          1     0.0000         7.4268640000        20.0223470000        11.2258540000
        86         86          1     0.0000        11.7604120000        23.7358060000        15.9438370000
        87         87          1     0.0000        16.4210600000        25.4382130000        17.5586240000
        88         88          1     0.0000        23.5718080000        36.9607310000        51.3127080000
        89         89          1     0.0000         5.4861350000        44.6004680000         1.2172580000
        90         90          1     0.0000         4.2618030000        24.4537420000        11.2011260000
        91         91          1     0.0000        11.4832700000        44.6820220000        15.1117510000
        92         92          1     0.0000        24.9621720000        34.5655580000        32.0790900000
        93         93          1     0.0000        16.1133720000         3.9025300000        50.0697090000
        94         94          1     0.0000        12.6098510000        50.6482490000        15.8793180000
        95         95          1     0.0000        25.7076370000        23.1041130000        44.2822000000
        96         96          1     0.0000        23.7262010000        51.3406200000         9.5152830000
        97         97          1     0.0000        10.9008510000        41.3222620000        31.8455170000
        98         98          1     0.0000        15.6413010000         0.4638220000        30.5936440000
        99         99          1     0.0000        34.5071010000        34.7840990000         1.3667310000
       100        100          1     0.0000        27.1467820000        44.5077320000        30.7506270000
       101        101          1     0.0000        15.7463870000        -0.7685350000         2.6546450000
       102        102          1     0.0000        20.3664920000         1.0742690000        44.5240650000
       103        103          1     0.0000        15.6442950000        38.8268090000        36.2931550000
       104        104          1     0.0000         7.8748410000        23.7994030000        52.5468950000
       105        105          1     0.0000        45.8605050000        13.3308910000         7.3853500000
       106        106          1     0.0000        17.7155170000        21.0554170000         9.0987580000
       107        107          1     0.0000         8.8208690000        16.9223120000        51.1671290000
       108        108          1     0.0000        37.8782950000         2.2391680000        11.7961260000
       109        109          1     0.0000         8.8743470000         2.0821380000        36.4765940000
       110        110          1     0.0000        36.8339060000        34.7106990000        38.2726180000
       111        111          1     0.0000        39.2366940000        51.4981040000        43.8108860000
       112        112          1     0.0000        27.6011320000        24.8056490000        34.4536450000
       113        113          1     0.0000         4.6862740000        42.4137530000        19.1600870000
       114        114          1     0.0000        45.0104970000        15.3861350000        22.4639650000
       115        115          1     0.0000         2.1553530000        23.0698990000        35.6308080000
       116        116          1     0.0000        28.9889620000        14.3605630000        11.0480050000
       117        117          1     0.0000        24.7286040000         2.6692970000        52.6843240000
       118        118          1     0.0000        33.4321540000        47.9574320000        13.4712170000
       119        119          1     0.0000        52.7455910000        35.8896730000         9.6399120000
       120        120          1     0.0000        36.3502910000        38.2405210000        33.8394790000
       121        121          1     0.0000        17.4636780000        19.8117690000        41.4251470000
       122        122          1     0.0000         1.2755730000        40.7233880000        41.6446920000
       123        123          1     0.0000         9.3042780000        22.0240420000        24.1870470000
       124        124          1     0.0000        17.1513100000        27.6240130000        48.2421090000
       125        125          1     0.0000        48.3621190000        34.3091090000        53.6391550000
       126        126          1     0.0000         8.4140470000        47.3723180000        12.8609220000
       127        127          1     0.0000        47.9088450000        39.5502530000        22.0200270000
       128        128          1     0.0000        53.3623180000        52.5001080000        32.3578220000
       129        129          1     0.0000         6.4030510000        20.9753050000        15.7908330000
       130        130          1     0.0000        17.7819360000        16.7854500000        45.4365190000
       131        131          1     0.0000         5.0416790000         1.5765320000        41.4574080000
       132        132          1     0.0000        50.3837670000        11.8752430000        37.2638120000
       133        133          1     0.0000        34.2329500000        22.5235630000        35.3857530000
       134        134          1     0.0000        50.6908900000        23.0256970000        50.8322420000
       135        135          1     0.0000        47.0601640000        26.6556910000        49.5924720000
       136        136          1     0.0000        23.2891500000        28.7015350000        42.7483880000
       137        137          1     0.0000        26.3057950000         3.4486140000        24.3058350000
       138        138          1     0.0000        42.4390220000        19.0958920000        43.0255140000
       139        139          1     0.0000        49.0086490000        51.2715760000        40.5376260000
       140        140          1     0.0000        20.9647440000         4.6104220000        28.1583530000
       141        141          1     0.0000        26.4797460000        38.4861920000        45.8674050000
       142        142          1     0.0000        16.0186550000        10.8059350000        36.1463650000
       143        143          1     0.0000        45.9078870000         8.5679860000        23.5260410000
       144        144          1     0.0000        15.3508150000         1.5443620000        45.9980910000
       145        145          1     0.0000        36.7684180000        42.6929100000        42.7174170000
       146        146          1     0.0000        39.5805920000        11.1682860000        23.8616190000
       147        147          1     0.0000        28.5593630000        10.9736320000        47.1236760000
       148        148          1     0.0000        39.6625740000        14.8074400000        33.1176320000
       149        149          1     0.0000         8.8072880000        16.7726230000        45.5039830000
       150        150          1     0.0000        49.4744710000        10.6177560000        21.7173670000
       151        151          1     0.0000        31.1410640000        51.1849360000        37.3793690000
       152        152          1     0.0000        26.3362260000        16.2174910000         7.3688420000
       153        153          1     0.0000        48.7442090000        14.0529260000        26.8125790000
       154        154          1     0.0000        27.0465240000        20.4319640000        30.7608540000
       155        155          1     0.0000        33.7683790000        48.1640940000        29.6433550000
       156        156          1     0.0000        28.8209150000        50.9270420000        51.8729210000
       157        157          1     0.0000        41.1898820000         9.3783230000        47.6079960000
       158        158          1     0.0000        10.9204580000        34.4507820000        18.7655940000
       159        159          1     0.0000         3.4450540000         6.4333080000        26.6099600000
       160        160          1     0.0000        37.6934100000        10.2331260000        17.8807150000
       161        161          1     0.0000        31.6928670000        29.4931450000        16.8595630000
       162        162          1     0.0000        34.5937620000        41.6863450000        10.9955200000
       163        163          1     0.0000        49.8053010000         2.0806590000        16.4731130000
       164        164          1     0.0000        50.5412580000        18.4360670000         3.9487980000
       165        165          1     0.0000        20.7269960000        35.8246690000        20.9444830000
       166        166          1     0.0000        47.1116120000         9.7409830000        30.7201720000
       167        167          1     0.0000        18.2825410000        47.0215130000         8.7506850000
       168        168          1     0.0000         3.6946940000        18.1112220000        20.7919640000
       169        169          1     0.0000         7.0511610000        24.9873080000         5.5416330000
       170        170          1     0.0000        34.4375180000        10.6258590000        46.7256470000
       171        171          1     0.0000        13.4666220000        34.6027950000        13.2230010000
       172        172          1     0.0000         6.2262380000        27.0731030000        14.8648270000
       173        173          1     0.0000        21.3407810000        29.4406940000        19.7612270000
       174        174          1     0.0000         4.7137350000        16.5151820000        36.3548050000
       175        175          1     0.0000         5.8787360000        42.9431470000        14.0784550000
       176        176          1     0.0000        27.8805670000        35.5998220000         4.7901690000
       177        177          1     0.0000        33.8286710000        27.4737060000        35.1574270000
       178        178          1     0.0000        28.9659420000         8.7039800000        53.1458520000
       179        179          1     0.0000        16.3311670000        34.8184270000        26.2306460000
       180        180          1     0.0000        39.0467220000        23.1767010000        26.5924740000
       181        181          1     0.0000        32.5663560000         6.2963390000        50.1019780000
       182        182          1     0.0000        22.3211990000        27.1381090000         1.7395420000
       183        183          1     0.0000         4.0063490000        40.2474580000        24.4725900000
       184        184          1     0.0000        28.4666830000        49.1863810000        32.3372780000
       185        185          1     0.0000        19.1352170000        31.1562830000         5.0561370000
       186        186          1     0.0000        38.9577760000        15.2166720000        21.0608220000
       187        187          1     0.0000        21.0997490000        18.5225090000         6.6827240000
       188        188          1     0.0000         1.4656320000        16.1786600000         9.0080410000
       189        189          1     0.0000        49.0564080000         2.2072580000         9.3114650000
       190        190          1     0.0000        31.8460010000        18.9285820000         5.3475940000
       191        191          1     0.0000        31.9473920000         6.3583280000        43.8376260000
       192        192          1     0.0000         4.4273400000        47.6280640000        49.6395790000
       193        193          1     0.0000        51.1194730000        37.2134650000        38.6311760000
       194        194          1     0.0000        45.7954910000        43.8418470000        48.8801410000
       195        195          1     0.0000         3.1044860000        35.2626290000        37.4504320000
       196        196          1     0.0000        50.3353310000        13.8206470000        32.0647460000
       197        197          1     0.0000         2.3127110000        24.5128460000        16.2076420000
       198        198          1     0.0000        45.2461260000         5.6070230000        12.8506690000
       199        199          1     0.0000        41.3433150000         5.4237510000         2.2172730000
       200        200          1     0.0000        38.2832670000        48.4581950000        26.4223940000
       201        201          1     0.0000        36.3001260000         9.3182660000        33.9000880000
       202        202          1     0.0000        10.1388480000        39.5429060000        47.0626010000
       203        203          1     0.0000        33.1938180000        46.1503880000        35.1072420000
       204        204          1     0.0000        47.1503630000        39.9679470000        27.1852000000
       205        205          1     0.0000        35.1532270000        25.5462820000        50.6200940000
       206        206          1     0.0000        41.3201330000        26.6830550000        12.3007710000
       207        207          1     0.0000        26.7929010000        20.7424030000         5.6175910000
       208        208          1     0.0000         5.9847390000        51.1286150000        33.6907220000
       209        209          1     0.0000        30.0190720000        25.7177350000        48.0380280000
       210        210          1     0.0000        31.7413600000        12.2492590000        29.8669060000
       211        211          1     0.0000        16.8952880000        18.6812880000        51.2869110000
       212        212          1     0.0000        37.5725870000        24.2084360000        31.2757720000
       213        213          1     0.0000        25.3941170000         0.5965590000        47.6042710000
       214        214          1     0.0000        47.2330990000        42.4745690000         5.2816190000
       215        215          1     0.0000         6.0183270000        38.1781690000        51.2703960000
       216        216          1     0.0000        29.1716860000        34.4251030000         0.9624160000
       217        217          1     0.0000         1.2541450000         1.7512230000         1.1018520000
       218        218          1     0.0000        18.5595360000         4.9879640000        22.7866030000
       219        219          1     0.0000        40.8514950000        33.8416380000        47.2022090000
       220        220          1     0.0000         2.5473490000        20.5426060000         7.1070260000
       221        221          1     0.0000        31.8010440000        49.7489680000        18.4109490000
       222        222          1     0.0000         2.9521120000         9.4382840000        21.8495940000
       223        223          1     0.0000        12.7420740000         9.2116260000        40.4924450000
       224        224          1     0.0000        14.3787510000         6.0521520000        28.9547710000
       225        225          1     0.0000        34.4320410000        33.5135120000        25.0817050000
       226        226          1     0.0000        13.2009910000         3.6010170000        40.2393960000
       227        227          1     0.0000        22.7063500000        14.2032290000        27.6589540000
       228        228          1     0.0000        20.4772780000        13.6328230000        50.6772500000
       229        229          1     0.0000        29.2217820000        30.0562210000         5.8078990000
       230        230          1     0.0000         9.9300810000        27.9795330000        37.3234420000
       231        231          1     0.0000        35.1734370000        16.4403280000         9.1892240000
       232        232          1     0.0000        39.5510920000        11.9037090000        37.9026240000
       233        233          1     0.0000        18.8046960000        39.8450170000         1.6264560000
       234        234          1     0.0000        34.7212370000         0.7915190000        42.6083000000
       235        235          1     0.0000         7.2878940000        49.2986950000        38.8940910000
       236        236          1     0.0000        36.0443710000        42.2210940000        37.5775040000
       237        237          1     0.0000        46.8742260000        18.5358010000         4.6936960000
       238        238          1     0.0000        29.9161010000         3.2993540000        52.2757190000
       239        239          1     0.0000        18.9882530000         5.1013720000        33.3088900000
       240        240          1     0.0000        39.2789810000        33.8780640000        27.0248580000
       241        241          1     0.0000        48.3518150000        29.1683830000        31.8121600000
       242        242          1     0.0000         7.8437740000        41.6624500000        27.6993880000
       243        243          1     0.0000        44.2097680000         3.9736330000        30.5429450000
       244        244          1     0.0000         2.9679840000        47.0381270000        22.2438400000
       245        245          1     0.0000        19.3753710000        46.9481550000        52.3685030000
       246        246          1     0.0000        33.8176440000        32.7797680000         6.4598630000
       247        247          1     0.0000        45.7642090000         7.8379710000         7.2983610000
       248        248          1     0.0000        23.3824370000        24.5980720000        30.6085180000
       249        249          1     0.0000        42.9355760000        11.7220270000        28.7809000000
       250        250          1     0.0000        44.8450050000        19.1438990000        27.3054960000
       251        251          1     0.0000        45.8532130000        52.7617820000        13.6330710000
       252        252          1     0.0000        42.9490590000        43.3844690000         0.6737070000
       253        253          1     0.0000        19.0456290000        40.5460290000        40.6008720000
       254        254          1     0.0000        26.9500360000        53.0661410000        41.0399720000
       255        255          1     0.0000         8.8309620000        45.2724760000        24.0458850000
       256        256          1     0.0000        22.4995010000        24.0126240000        20.2002830000
       257        257          1     0.0000        14.5609090000        44.6097770000        52.8327550000
       258        258          1     0.0000        33.2406270000         3.8499620000         8.1863090000
       259        259          1     0.0000        51.4024870000         3.8024220000        31.7694680000
       260        260          1     0.0000         3.0766020000        48.9428410000        27.9588590000
       261        261          1     0.0000         1.8486290000         6.9717980000        11.3935570000
       262        262          1     0.0000        41.1606540000         6.5126890000         9.1685970000
       263        263          1     0.0000        27.4531370000        13.5761990000        22.4438920000
       264        264          1     0.0000        50.3710060000        21.5616010000        37.7100370000
       265        265          1     0.0000        50.4585810000        43.4330950000        36.3370500000
       266        266          1     0.0000        49.3773790000        18.9906150000         9.6914230000
       267        267          1     0.0000        13.9291910000        49.5760150000        26.6992550000
       268        268          1     0.0000         4.2400590000         6.0391210000         4.9966380000
       269        269          1     0.0000        14.5809030000        45.1088280000        42.2790140000
       270        270          1     0.0000        23.9483860000        48.1187130000        27.8003100000
       271        271          1     0.0000        51.6309690000        21.7168730000        32.1657030000
       272        272          1     0.0000         9.7652150000        34.5504540000        48.3889860000
       273        273          1     0.0000        36.3243720000        28.5649680000         2.6950270000
       274        274          1     0.0000        45.8023900000        44.2678050000        26.7797650000
       275        275          1     0.0000        25.0602400000        32.2391120000        21.5772830000
       276        276          1     0.0000         5.6688430000         0.1688040000         3.9590360000
       277        277          1     0.0000         7.4304080000        32.6190970000        37.4222170000