CG model

        1000 atoms

        1  atom types

          0.0000000000     61.0781620000    xlo xhi
          0.0000000000     61.0781620000    ylo yhi
          0.0000000000     61.0781620000    zlo zhi

 Masses

        1          120.1950

 Atoms

         1          1          1     0.0000        33.9037730000        41.4221960000        60.4670060000
         2          2          1     0.0000        41.7172410000        54.6204590000        21.7781860000
         3          3          1     0.0000        34.8599030000        24.3873660000         9.4359700000
         4          4          1     0.0000        30.1995700000         9.6168090000        12.8280920000
         5          5          1     0.0000        61.4131320000        50.6244330000        32.3185270000
         6          6          1     0.0000         1.7682310000         4.4768490000        57.2419300000
         7          7          1     0.0000        34.4763780000        48.7570880000        26.3259160000
         8          8          1     0.0000         0.9547470000        53.3685610000        24.2373590000
         9          9          1     0.0000         0.4548780000        55.2767700000        18.3873320000
        10         10          1     0.0000        48.7307180000        36.1592720000        53.1995470000
        11         11          1     0.0000        43.5022230000        42.4691890000        48.2246480000
        12         12          1     0.0000        50.6119890000        57.3169390000        55.8019550000
        13         13          1     0.0000        11.4453830000         3.4140380000        25.7887300000
        14         14          1     0.0000         8.6129380000         7.0147710000        48.1601640000
        15         15          1     0.0000        45.3483520000        51.2962840000        51.1850350000
        16         16          1     0.0000        -0.8663270000        22.6112970000        35.1005370000
        17         17          1     0.0000        28.2735110000         3.4425580000        39.0325960000
        18         18          1     0.0000         6.6547080000        41.4658350000        16.8349800000
        19         19          1     0.0000         5.7734980000        -0.5282120000        56.7878270000
        20         20          1     0.0000         7.3522250000        27.0434530000         0.8038660000
        21         21          1     0.0000        57.8676580000        19.2641770000        32.4548730000
        22         22          1     0.0000        29.8932860000        45.3885560000        18.9960620000
        23         23          1     0.0000        34.0737130000        29.4362480000        24.3433070000
        24         24          1     0.0000        53.8929130000        58.7090200000        35.3030840000
        25         25          1     0.0000        50.6767430000        13.8791630000        62.2824660000
        26         26          1     0.0000        49.7184070000        21.7597690000        16.4906990000
        27         27          1     0.0000         1.1111240000        15.7122720000        59.8894130000
        28         28          1     0.0000        27.0004430000        18.7444370000        48.5466360000
        29         29          1     0.0000        31.8036030000        11.6518610000        33.7761340000
        30         30          1     0.0000         2.5524760000         8.3454190000        40.2035290000
        31         31          1     0.0000        34.9078640000        18.5824340000         7.0803250000
        32         32          1     0.0000        34.1060520000        13.2767590000        12.5245380000
        33         33          1     0.0000        23.1689820000        23.3831660000         4.4152950000
        34         34          1     0.0000         1.2635420000        13.8260360000        38.6422820000
        35         35          1     0.0000         5.2815780000        40.7832410000        28.2702280000
        36         36          1     0.0000        48.2895240000        59.5700550000         4.5083030000
        37         37          1     0.0000        -0.2393200000         0.9447700000         7.1752280000
        38         38          1     0.0000        34.8240720000        28.9119400000        12.4905990000
        39         39          1     0.0000        15.4166130000        49.8771050000         4.0581230000
        40         40          1     0.0000         7.5407160000        25.5857250000        56.6794870000
        41         41          1     0.0000        52.9491120000        33.6642590000        34.3152250000
        42         42          1     0.0000        29.1471920000        41.8672970000        23.9124380000
        43         43          1     0.0000        57.2873500000         4.5046780000        26.2221190000
        44         44          1     0.0000        50.7181980000        20.9731910000        22.8116470000
        45         45          1     0.0000        44.6203160000        45.3065030000         2.1904900000
        46         46          1     0.0000        47.6483370000        33.2854570000        33.4500970000
        47         47          1     0.0000        32.6793490000        15.0105880000         1.7515770000
        48         48          1     0.0000        55.9410640000        42.4166540000         7.9230940000
        49         49          1     0.0000        36.4256690000        50.3828420000        41.5378910000
        50         50          1     0.0000        59.3918740000        54.7448490000        36.0224520000
        51         51          1     0.0000        53.5933490000        58.8004770000         4.6951470000
        52         52          1     0.0000        48.7221160000        48.2560150000        32.5771970000
        53         53          1     0.0000        11.7026460000        12.8691490000        16.2209940000
        54         54          1     0.0000        19.1260830000        34.5592230000        42.3840240000
        55         55          1     0.0000        41.0448200000        33.0282180000        38.6532030000
        56         56          1     0.0000        48.9246080000        38.0649840000        28.7466580000
        57         57          1     0.0000        45.5112490000        39.8496750000        18.0463400000
        58         58          1     0.0000        40.6749710000        51.6149400000        46.7502830000
        59         59          1     0.0000         2.9308900000         5.9265450000        22.0649220000
        60         60          1     0.0000        59.5794510000        59.9426410000        29.0194250000
        61         61          1     0.0000        25.6654050000        55.0787820000        46.5069380000
        62         62          1     0.0000        29.9750020000        30.3279580000         9.4339990000
        63         63          1     0.0000        14.5127850000        53.8187750000        27.4626820000
        64         64          1     0.0000        32.2515820000         2.0205990000        27.4744320000
        65         65          1     0.0000        23.5500370000        35.5848320000        14.7390490000
        66         66          1     0.0000         5.1416770000        35.3639530000        17.2934480000
        67         67          1     0.0000        51.3053720000         7.8205500000         3.5979070000
        68         68          1     0.0000         3.2947710000        24.7688370000        25.1466100000
        69         69          1     0.0000        13.3068960000         4.7812060000        60.1141620000
        70         70          1     0.0000        13.5697210000        58.6005980000        47.8379810000
        71         71          1     0.0000        11.4804440000        23.3902680000        18.0902860000
        72         72          1     0.0000        15.1118710000        53.4756640000        20.8887170000
        73         73          1     0.0000         2.9690710000        57.3466130000         3.6639140000
        74         74          1     0.0000        39.8091090000        54.1613570000        42.9966730000
        75         75          1     0.0000        32.6824310000        24.3229820000         2.4263570000
        76         76          1     0.0000        30.4721370000        46.6458970000        38.0817120000
        77         77          1     0.0000        13.3768800000        44.4759320000        32.3887080000
        78         78          1     0.0000        55.5474440000        36.3559530000        18.0173930000
        79         79          1     0.0000        39.4950080000         2.8052530000        21.7746870000
        80         80          1     0.0000        48.6428710000        19.6254650000        58.0878690000
        81         81          1     0.0000        24.6101260000        61.8003720000        37.9699170000
        82         82          1     0.0000        24.3923250000        40.2426720000        50.8145100000
        83         83          1     0.0000        17.1482740000        20.4668170000        19.1845510000
        84         84          1     0.0000        27.2089380000        21.8602630000        38.5397100000
        85         85          1     0.0000        59.8276570000        18.9499480000        41.0715030000
        86         86          1     0.0000         9.7794710000        31.0573020000        57.0493520000
        87         87          1     0.0000        34.7552430000        48.7331270000         5.2699500000
        88         88          1     0.0000        57.5413590000        26.9633890000        20.0200950000
        89         89          1     0.0000        29.6229030000        57.6316530000        36.3539780000
        90         90          1     0.0000        53.0965130000        43.1843120000         3.6909630000
        91         91          1     0.0000        28.0588620000         7.9621990000        18.5877770000
        92         92          1     0.0000        59.4471060000        48.3870010000         2.3269310000
        93         93          1     0.0000        47.6397400000        61.1069510000        58.0882310000
        94         94          1     0.0000        56.3379730000        29.1266350000         0.4540170000
        95         95          1     0.0000        25.8725990000        38.5266940000        42.5989820000
        96         96          1     0.0000        47.6867360000         8.3364350000        46.3294670000
        97         97          1     0.0000         3.1979990000        32.2973760000        46.6261320000
        98         98          1     0.0000        57.2281240000        39.8373120000        34.0877170000
        99         99          1     0.0000        22.6274860000        18.2203250000         2.2625840000
       100        100          1     0.0000         8.8698320000        22.7634430000        22.7979020000
       101        101          1     0.0000        14.5914270000        45.8432890000        18.2431370000
       102        102          1     0.0000        53.6467280000        21.4655030000        55.6456810000
       103        103          1     0.0000        50.1397500000        59.4192150000        43.7808470000
       104        104          1     0.0000        56.4771500000         8.0588360000        53.8635730000
       105        105          1     0.0000        33.0334720000        55.7741770000        41.0868330000
       106        106          1     0.0000        55.8548930000        51.6601070000         3.8716000000
       107        107          1     0.0000        54.7995760000         2.8514660000        48.2896320000
       108        108          1     0.0000        20.5980020000        10.4343110000        21.3411000000
       109        109          1     0.0000        37.9456330000        50.3569830000        11.1180150000
       110        110          1     0.0000        22.3482730000         6.7348470000         6.9170150000
       111        111          1     0.0000        38.3164730000        39.8507050000         6.3163420000
       112        112          1     0.0000         7.4267550000        55.3587150000        54.3441690000
       113        113          1     0.0000        47.0042410000        42.1551320000        32.7960800000
       114        114          1     0.0000        19.3460440000        35.5708430000        53.7644150000
       115        115          1     0.0000        19.0277140000        36.1448020000        59.4552510000
       116        116          1     0.0000        10.2360280000         0.3344570000        19.4273940000
       117        117          1     0.0000        15.3522120000        27.0119410000        16.9243970000
       118        118          1     0.0000         2.5682640000        24.3643540000        49.4801350000
       119        119          1     0.0000        11.7226780000        37.0915510000        42.5853660000
       120        120          1     0.0000        24.7444190000        46.4500430000         0.5568430000
       121        121          1     0.0000         4.6159820000        49.5470440000        17.4606370000
       122        122          1     0.0000        37.5599130000        22.2499710000        59.2350710000
       123        123          1     0.0000        37.9748860000        34.2685830000         2.4717920000
       124        124          1     0.0000        27.4960640000         5.1039370000        58.4164940000
       125        125          1     0.0000        38.9798710000        24.7258600000        14.8022670000
       126        126          1     0.0000        44.6417010000        45.3128530000        37.6875860000
       127        127          1     0.0000        22.0087170000        27.3097290000        25.3982340000
       128        128          1     0.0000        50.8169230000         6.9263460000        25.9336000000
       129        129          1     0.0000        46.1164760000         5.2804170000        55.3737930000
       130        130          1     0.0000        44.7333750000        55.4266630000         6.5285540000
       131        131          1     0.0000         5.3392420000        41.3549850000        59.2867430000
       132        132          1     0.0000        34.8708380000         7.4574180000        54.3680630000
       133        133          1     0.0000        57.7452610000        41.6689730000         0.5280790000
       134        134          1     0.0000         4.0848030000        38.3047290000        43.8683050000
       135        135          1     0.0000        11.0822200000        50.8854420000         6.9586900000
       136        136          1     0.0000         0.9465360000        45.2437310000        16.2893580000
       137        137          1     0.0000        44.5797610000        25.0780180000         6.6656770000
       138        138          1     0.0000        38.1234070000        24.1204950000        23.5176280000
       139        139          1     0.0000        56.8927800000        62.0940340000        39.7990000000
       140        140          1     0.0000        18.1096130000        49.4842040000        25.2448980000
       141        141          1     0.0000        49.1254010000        35.5395630000         2.2335060000
       142        142          1     0.0000         4.1487980000        28.2892820000        42.9221830000
       143        143          1     0.0000        17.8251550000        57.4041030000        23.1751780000
       144        144          1     0.0000        60.1756400000        51.4402650000         7.2481160000
       145        145          1     0.0000        47.1671320000        17.2879130000        21.9403200000
       146        146          1     0.0000        33.4884020000        26.3843360000        57.9421630000
       147        147          1     0.0000        55.2651720000        45.0809280000        58.1749150000
       148        148          1     0.0000        13.1111610000        55.3123020000        42.7408880000
       149        149          1     0.0000        29.0640150000        39.3859840000        19.1170490000
       150        150          1     0.0000        49.7513740000        61.8358550000        48.6351820000
       151        151          1     0.0000         2.9341690000        40.0312980000        33.4741720000
       152        152          1     0.0000        55.6629500000        59.5501270000        56.5063530000
       153        153          1     0.0000        32.9389260000         6.6509450000         2.4196120000
       154        154          1     0.0000        12.8765170000        17.4919370000        47.8652020000
       155        155          1     0.0000        33.7029530000        47.5433100000        51.0958780000
       156        156          1     0.0000        54.2958720000        14.6589620000         6.5260170000
       157        157          1     0.0000        40.2304140000         2.3555560000         9.6784580000
       158        158          1     0.0000        44.4723830000         3.7218300000        29.5196620000
       159        159          1     0.0000        30.2752900000        51.4254730000        40.4502390000
       160        160          1     0.0000        35.4135560000        22.0536660000        47.3090420000
       161        161          1     0.0000         7.4128590000        13.7384540000        27.0971130000
       162        162          1     0.0000        30.2267700000         2.0923400000        47.8146370000
       163        163          1     0.0000        59.4507860000        28.9922930000        50.4395340000
       164        164          1     0.0000        20.8865800000        53.9479920000        17.8485130000
       165        165          1     0.0000        21.3773960000        24.1169370000        14.8811280000
       166        166          1     0.0000        48.1766380000        53.4680330000        37.2192370000
       167        167          1     0.0000        29.3643560000        31.6558460000        14.9800300000
       168        168          1     0.0000        59.0706000000        39.9393210000        45.2290760000
       169        169          1     0.0000        56.3256430000        60.1974870000        14.6503450000
       170        170          1     0.0000        13.8007030000        58.9506560000         2.9591060000
       171        171          1     0.0000        48.2139290000        14.7786470000        37.8369530000
       172        172          1     0.0000        12.6616290000        17.5256820000        21.7925270000
       173        173          1     0.0000        32.0647160000        13.5004630000        51.5839620000
       174        174          1     0.0000         4.9071900000        10.2342410000         8.5374800000
       175        175          1     0.0000        32.2862900000        32.1205620000        46.6721050000
       176        176          1     0.0000        58.7643280000        33.5896080000        60.1031130000
       177        177          1     0.0000        41.1569180000         6.3326970000        48.9786500000
       178        178          1     0.0000        47.4791340000        12.5365660000        43.1254320000
       179        179          1     0.0000        10.0872700000        42.1489300000        10.3632790000
       180        180          1     0.0000        22.1084880000         9.7680720000        12.9957030000
       181        181          1     0.0000        29.5677410000         2.2749640000        10.2035260000
       182        182          1     0.0000        45.1605670000        37.6341420000        23.5650190000
       183        183          1     0.0000        54.9380470000         3.1067020000        35.0723630000
       184        184          1     0.0000         1.4906650000        46.2544030000        58.1706530000
       185        185          1     0.0000        16.9780330000        58.6132390000        32.1563400000
       186        186          1     0.0000         0.7046800000        49.5790680000        39.1930110000
       187        187          1     0.0000         3.5146920000         5.7767950000        46.8685230000
       188        188          1     0.0000        37.7307830000        25.0369310000        29.0697130000
       189        189          1     0.0000        40.9493670000        60.7638850000        58.8362940000
       190        190          1     0.0000        34.2140330000        19.2787450000        18.1955890000
       191        191          1     0.0000        31.3193320000        42.3479450000        42.0268530000
       192        192          1     0.0000        15.2800690000        41.8894090000        22.8386370000
       193        193          1     0.0000         0.9226220000         0.2219930000        18.4998630000
       194        194          1     0.0000        44.9960050000        46.3596930000        55.9930900000
       195        195          1     0.0000        29.5293070000        36.0717140000        61.8543120000
       196        196          1     0.0000        40.4518530000        45.1019400000        32.1171290000
       197        197          1     0.0000        58.8597220000        24.9692050000         9.6342300000
       198        198          1     0.0000         0.2188050000        39.9106430000        55.8430480000
       199        199          1     0.0000        16.1646330000        -0.5537800000         9.7931160000
       200        200          1     0.0000        32.6929730000         7.5053190000        43.5147300000
       201        201          1     0.0000        17.0226650000        14.3003200000        12.7190760000
       202        202          1     0.0000        18.7087450000        36.3165420000        35.5441410000
       203        203          1     0.0000        59.8452070000         9.9814750000        27.9763130000
       204        204          1     0.0000        30.3159640000        38.0727680000        55.0030950000
       205        205          1     0.0000        20.5731610000        46.4763280000        18.0778950000
       206        206          1     0.0000         9.8458940000        28.2786180000        33.4803660000
       207        207          1     0.0000        16.0885830000        41.6173290000         6.1564410000
       208        208          1     0.0000        13.6458170000        32.1286980000        26.0429490000
       209        209          1     0.0000         8.6659220000        18.5655830000        28.6091580000
       210        210          1     0.0000        43.8492400000        50.8180640000        32.6482880000
       211        211          1     0.0000        41.0842830000        25.2055930000        47.3721750000
       212        212          1     0.0000        60.6781820000        15.1353540000         5.8823590000
       213        213          1     0.0000        55.0630390000         8.6332800000        33.4071690000
       214        214          1     0.0000        10.2904070000        19.3658800000        55.1089410000
       215        215          1     0.0000        39.2436930000        27.8249680000        40.2703550000
       216        216          1     0.0000        28.3805620000        42.8973700000        57.9026360000
       217        217          1     0.0000        49.5443380000         0.7233000000        31.1672860000
       218        218          1     0.0000        12.6939100000        36.2914330000        13.0325460000
       219        219          1     0.0000        25.8996770000        46.0366320000        48.3225530000
       220        220          1     0.0000         5.4205650000        33.5338320000        23.5006250000
       221        221          1     0.0000        28.5117420000        21.3734170000        54.0168350000
       222        222          1     0.0000        37.0826030000        36.9388100000        56.0323550000
       223        223          1     0.0000        15.0471290000        53.5880120000         9.3638210000
       224        224          1     0.0000        10.8990450000        45.3073720000        -0.6093010000
       225        225          1     0.0000        49.2059720000        13.5316430000        31.2740020000
       226        226          1     0.0000        12.0448220000         9.1779220000        55.6649070000
       227        227          1     0.0000        35.4182180000        60.0266940000         7.4070990000
       228        228          1     0.0000         8.5250650000         5.3227030000        32.6564530000
       229        229          1     0.0000        55.9469880000        43.0110930000        17.5392540000
       230        230          1     0.0000        28.6943060000        18.7067050000        33.0188130000
       231        231          1     0.0000        25.4519710000        14.0156130000         4.4285130000
       232        232          1     0.0000        22.5425070000         9.2681280000         1.6936430000
       233        233          1     0.0000         3.7164100000        57.5655810000        29.4740730000
       234        234          1     0.0000        21.7878880000        54.8116030000        12.8873810000
       235        235          1     0.0000         3.2858970000        30.5284720000        56.5565550000
       236        236          1     0.0000        60.2294160000        20.3091780000        13.7884550000
       237        237          1     0.0000        16.4215340000         5.5843410000        19.0304390000
       238        238          1     0.0000        42.3706250000        20.9715900000        20.0993730000
       239        239          1     0.0000        19.6900430000        21.8425270000        38.5319220000
       240        240          1     0.0000        55.1833280000        32.0679010000        45.6340990000
       241        241          1     0.0000        -0.6165850000        44.6779410000        47.8062940000
       242        242          1     0.0000         2.1673680000        55.4907080000        49.7803600000
       243        243          1     0.0000         4.5800810000        24.9271530000        14.6769180000
       244        244          1     0.0000        26.3507710000         5.5742260000        43.3490920000
       245        245          1     0.0000        36.9759470000        34.1585170000        29.9441430000
       246        246          1     0.0000        47.9360650000        23.4678330000        29.3175750000
       247        247          1     0.0000        35.9466320000        57.4122220000        46.4717190000
       248        248          1     0.0000        54.5800180000        14.8477890000        36.6614910000
       249        249          1     0.0000        34.4840710000        36.8022820000        51.0982330000
       250        250          1     0.0000        24.2751210000        11.6833760000        49.5382610000
       251        251          1     0.0000         9.3970440000        44.0999930000        21.7236470000
       252        252          1     0.0000        18.5064780000        54.7316470000        52.3021570000
       253        253          1     0.0000         7.1568610000        47.0863210000         9.9113840000
       254        254          1     0.0000        53.6718970000        19.1331070000         0.9356730000
       255        255          1     0.0000        18.7904620000         2.8015280000        35.4026430000
       256        256          1     0.0000        21.6526210000        29.5075180000        33.7569400000
       257        257          1     0.0000        55.9976120000        56.5215110000        40.9117610000
       258        258          1     0.0000        43.6954120000         4.3342120000        41.7070380000
       259        259          1     0.0000        34.6934220000        42.0237180000        46.8882010000
       260        260          1     0.0000        10.2893930000        16.6201360000         2.2400520000
       261        261          1     0.0000         5.5200030000        11.2565100000        16.0470510000
       262        262          1     0.0000        42.2965070000        47.6655990000        41.6931730000
       263        263          1     0.0000        50.9835470000        42.7908870000        35.7768610000
       264        264          1     0.0000        19.0360230000        46.9110920000        11.4825610000
       265        265          1     0.0000        41.1634790000        19.8403400000        49.2919180000
       266        266          1     0.0000        41.1433030000        12.9490330000        23.7295210000
       267        267          1     0.0000        20.1778230000        60.7402770000        59.1871480000
       268        268          1     0.0000        24.4176680000        22.0284580000        30.6660240000
       269        269          1     0.0000        57.2541250000        29.9579530000        10.3784110000
       270        270          1     0.0000        45.3737320000        36.2303520000         9.7810350000
       271        271          1     0.0000         1.3403230000        61.3923020000        12.7424660000
       272        272          1     0.0000         0.0367640000        22.5842340000        45.2667930000
       273        273          1     0.0000        43.2713870000        27.7604640000        27.6042100000
       274        274          1     0.0000        44.6217330000        11.2690450000        49.5896790000
       275        275          1     0.0000        38.3772260000        12.2054150000        35.0113750000
       276        276          1     0.0000        57.0050080000        60.7095330000        21.4580440000
       277        277          1     0.0000        12.3337010000         9.7127040000         2.0128640000