CG model

        1000 atoms

        1  atom types

          0.0000000000     64.4915700000    xlo xhi
          0.0000000000     64.4915700000    ylo yhi
          0.0000000000     64.4915700000    zlo zhi

 Masses

        1          114.2302

 Atoms

         1          1          1     0.0000         5.0801110000        14.1715310000         8.5070640000
         2          2          1     0.0000        34.1337320000        37.1091310000        38.3060080000
         3          3          1     0.0000        56.2730900000        43.1169260000        35.1718250000
         4          4          1     0.0000        54.7816160000        45.5873670000        57.4024540000
         5          5          1     0.0000        16.7620460000        10.3219090000        40.2949440000
         6          6          1     0.0000        50.8601620000         4.9868410000        14.6338670000
         7          7          1     0.0000         6.6923040000        60.1485280000        36.6669120000
         8          8          1     0.0000        38.2067790000        63.2188230000         2.4300300000
         9          9          1     0.0000         5.2517900000        59.3064370000        20.5177250000
        10         10          1     0.0000        41.4061660000        53.3765670000        43.2872670000
        11         11          1     0.0000        17.7472880000         5.3831890000         0.2765480000
        12         12          1     0.0000        66.3739750000        43.2240260000        30.2674350000
        13         13          1     0.0000        37.6877540000        54.9359130000         2.5887220000
        14         14          1     0.0000        20.7037970000        43.5459630000        21.7901890000
        15         15          1     0.0000        -1.2102920000        54.7587910000        56.2473130000
        16         16          1     0.0000        16.8459010000        13.8672400000        56.1759290000
        17         17          1     0.0000        54.8180460000        23.2831890000         1.6946350000
        18         18          1     0.0000        48.4280600000         0.9437570000        59.3712180000
        19         19          1     0.0000        44.8382580000        60.8537220000        59.8851170000
        20         20          1     0.0000         8.2250820000        51.0449960000        30.9381600000
        21         21          1     0.0000        32.5804780000        -0.6738970000        51.5077530000
        22         22          1     0.0000         5.0126710000        15.8249200000        24.6333150000
        23         23          1     0.0000        35.3410960000        46.1425930000        49.9717440000
        24         24          1     0.0000        53.2440440000        63.4224750000        53.1184940000
        25         25          1     0.0000        47.8027160000        26.2504290000        59.2229490000
        26         26          1     0.0000        12.8940200000         5.2862540000        40.7040890000
        27         27          1     0.0000        28.4600330000        46.7330730000        28.7568530000
        28         28          1     0.0000        15.4723400000        44.3229920000        25.3235890000
        29         29          1     0.0000        46.1959320000        32.4337000000        60.6712430000
        30         30          1     0.0000        58.4622320000         9.9665310000        13.9258780000
        31         31          1     0.0000         1.9873340000         9.8731040000        62.0623750000
        32         32          1     0.0000        15.8196040000        62.4394010000        63.5516460000
        33         33          1     0.0000        10.8012570000        60.5514870000        40.6991820000
        34         34          1     0.0000        65.8838830000         6.7265820000        50.0491670000
        35         35          1     0.0000        35.4975760000        42.2727700000        44.1874410000
        36         36          1     0.0000        56.5612020000        23.9316130000        51.4758150000
        37         37          1     0.0000        52.6760300000        63.7347060000        63.3020890000
        38         38          1     0.0000        16.9489810000         0.4723680000        54.4549710000
        39         39          1     0.0000        62.5158230000        39.8529790000        10.7757540000
        40         40          1     0.0000         7.9648790000        61.6158340000        62.9723920000
        41         41          1     0.0000        37.3186410000         8.3425620000         4.3661460000
        42         42          1     0.0000        20.8549790000        53.3316520000        59.0677840000
        43         43          1     0.0000        30.2244080000        15.1320660000        13.9632990000
        44         44          1     0.0000        61.7696670000        64.4711670000        42.7303960000
        45         45          1     0.0000        37.8741100000        20.3789730000        42.5020810000
        46         46          1     0.0000        34.0462460000        28.5971690000        62.2465350000
        47         47          1     0.0000        58.4650510000        46.2523930000         7.6048140000
        48         48          1     0.0000        34.8724220000        62.2004670000        57.3100440000
        49         49          1     0.0000        41.8665530000        49.5111720000        61.2124790000
        50         50          1     0.0000        62.2496730000        21.2125960000         2.8694910000
        51         51          1     0.0000        52.0547610000        28.3390360000        22.4259630000
        52         52          1     0.0000        -0.4300360000        13.7470350000        37.9837640000
        53         53          1     0.0000        42.6457610000        32.4423750000        13.6586600000
        54         54          1     0.0000        51.4603560000        48.3608340000         7.8649140000
        55         55          1     0.0000         0.2961580000        49.6323540000        64.2697670000
        56         56          1     0.0000        54.6120830000        51.3046960000         2.5556350000
        57         57          1     0.0000         2.0821970000        37.1651040000        25.9996520000
        58         58          1     0.0000        28.8040730000        56.8585390000        25.3331010000
        59         59          1     0.0000        29.2466290000         9.4005200000        36.8118890000
        60         60          1     0.0000        60.5688900000        31.7879010000        51.0812300000
        61         61          1     0.0000        51.1095070000        40.8107910000        60.4328240000
        62         62          1     0.0000        23.7442570000        13.8727700000        33.0626790000
        63         63          1     0.0000         2.0492820000        38.1875000000        56.3643400000
        64         64          1     0.0000        18.5743540000        62.0112450000        58.8203960000
        65         65          1     0.0000         5.0073970000        34.5839210000        10.6816890000
        66         66          1     0.0000        15.7658090000        11.1097930000        62.3656160000
        67         67          1     0.0000         5.1712180000        16.3395900000        18.4855490000
        68         68          1     0.0000        63.1301370000        23.2609300000        49.6644940000
        69         69          1     0.0000        51.1491180000        34.4418010000        61.8466290000
        70         70          1     0.0000         7.4214070000        49.9004470000         9.8581830000
        71         71          1     0.0000        29.3065410000        51.5322510000        11.4125150000
        72         72          1     0.0000         6.9266310000        34.8868670000        50.0074140000
        73         73          1     0.0000        28.0215500000        21.4357290000        38.5635700000
        74         74          1     0.0000        18.6241250000         9.5905100000         9.2035010000
        75         75          1     0.0000        12.1014430000        31.2580930000         5.2746260000
        76         76          1     0.0000         1.4810110000        35.8253650000        32.2872020000
        77         77          1     0.0000        56.3366180000        41.1323980000        48.3500580000
        78         78          1     0.0000        14.4809610000        40.6952670000        55.1418530000
        79         79          1     0.0000        33.7870320000        35.8031150000        52.9787230000
        80         80          1     0.0000        42.0158700000        51.5781460000         3.7797160000
        81         81          1     0.0000        51.3207780000        33.1942870000        34.3861920000
        82         82          1     0.0000        18.8320450000        31.4871460000        55.9242660000
        83         83          1     0.0000        19.3202390000        15.7352040000        43.2064110000
        84         84          1     0.0000        59.7347280000        17.7352790000        63.1066580000
        85         85          1     0.0000        16.4992810000        39.5532580000        33.3885780000
        86         86          1     0.0000        53.7120650000        37.1272160000        13.7865390000
        87         87          1     0.0000        27.0500730000        -1.0502990000        35.3183820000
        88         88          1     0.0000        26.7781100000        26.2152000000        63.1032480000
        89         89          1     0.0000        26.9596130000        16.8230380000        18.3815480000
        90         90          1     0.0000        50.9068490000        13.1400110000        43.9513040000
        91         91          1     0.0000         9.4669840000        45.0023740000        33.2073780000
        92         92          1     0.0000        33.9492160000         5.8142940000        25.0634580000
        93         93          1     0.0000        54.1809440000         4.5023220000        45.2143000000
        94         94          1     0.0000        60.0535840000        11.9678580000         6.9438120000
        95         95          1     0.0000        22.9838130000        46.7208500000        31.9284230000
        96         96          1     0.0000        26.5357690000        40.3155940000        31.1656650000
        97         97          1     0.0000        31.6662010000        22.8039670000         7.2706510000
        98         98          1     0.0000        12.6578700000         6.4032960000        21.7746240000
        99         99          1     0.0000        25.9063760000        54.3012460000        45.9976810000
       100        100          1     0.0000        48.9313930000         5.5782860000        61.8746160000
       101        101          1     0.0000        43.1274650000        38.4433200000        58.2196470000
       102        102          1     0.0000        48.0060710000        52.4165120000         0.7278350000
       103        103          1     0.0000        42.6645240000         7.8795180000        43.1082510000
       104        104          1     0.0000        17.8078760000        25.6903280000        51.2572380000
       105        105          1     0.0000        62.9538490000        20.1270250000        13.4079180000
       106        106          1     0.0000        48.2602960000        61.5446790000        55.6586040000
       107        107          1     0.0000        10.9178030000         9.9813500000        57.2698620000
       108        108          1     0.0000         8.8544090000         5.6208320000        16.1951860000
       109        109          1     0.0000        58.6042210000        40.4014960000        60.1225320000
       110        110          1     0.0000        28.0320180000        29.9156280000        30.6777050000
       111        111          1     0.0000        27.6663040000        46.5288870000        47.1171840000
       112        112          1     0.0000        29.2956070000        28.4967820000        21.5422160000
       113        113          1     0.0000        43.1018130000        41.7241380000        33.0374560000
       114        114          1     0.0000        32.1886390000        13.8243070000         6.9584350000
       115        115          1     0.0000        22.7233390000        47.3536110000        25.2708950000
       116        116          1     0.0000        16.0609220000         3.8142990000        34.5845470000
       117        117          1     0.0000        18.0152500000        62.9968680000         4.0829440000
       118        118          1     0.0000        53.4608800000        13.3530430000         5.0293980000
       119        119          1     0.0000        22.4161250000        59.3332870000        54.0366220000
       120        120          1     0.0000        25.5963140000        15.8540250000        57.9681390000
       121        121          1     0.0000        61.3300110000        51.1295540000        41.6391880000
       122        122          1     0.0000        36.1830630000        34.5589950000        47.4259750000
       123        123          1     0.0000        15.8566940000        24.4290750000        26.8651980000
       124        124          1     0.0000        56.9710380000        21.8755170000        29.9920100000
       125        125          1     0.0000        13.9209090000        29.5966460000        58.7188540000
       126        126          1     0.0000        44.0512480000        30.1972510000        54.0546260000
       127        127          1     0.0000         2.1716410000        56.2303510000        42.6356440000
       128        128          1     0.0000        27.7851310000        40.3992200000        21.9702110000
       129        129          1     0.0000        43.1397060000         1.2140010000        41.3099300000
       130        130          1     0.0000        37.1137710000        54.9779000000        55.8807540000
       131        131          1     0.0000        52.7894890000        19.7118130000        14.7275610000
       132        132          1     0.0000        12.6738240000        37.0016810000         3.6566840000
       133        133          1     0.0000        33.5370520000        58.7514490000        41.3235100000
       134        134          1     0.0000         5.0250260000        33.8860330000        43.4033770000
       135        135          1     0.0000        63.5425920000         4.9637970000        20.0279270000
       136        136          1     0.0000        23.9308610000        35.9956020000        42.2768380000
       137        137          1     0.0000        50.6572680000        51.4719760000        22.8922500000
       138        138          1     0.0000         0.4834470000        45.2992510000        46.0364760000
       139        139          1     0.0000        35.3862300000        34.9231850000        21.8466460000
       140        140          1     0.0000        43.8981210000        28.3588920000        29.5317640000
       141        141          1     0.0000         6.3806340000        10.2210380000         3.7160450000
       142        142          1     0.0000         7.4288340000        52.5266940000        39.1845320000
       143        143          1     0.0000        62.7585170000        19.8660490000        19.7592250000
       144        144          1     0.0000        16.7687360000         1.8563800000        28.8987330000
       145        145          1     0.0000        36.0763670000        43.1126490000         2.5987640000
       146        146          1     0.0000        61.9155600000        64.0931760000        53.9399830000
       147        147          1     0.0000        12.7450070000         7.6441170000        29.3530780000
       148        148          1     0.0000        34.4025860000        24.9082380000        40.5517300000
       149        149          1     0.0000        48.7963390000        29.6778880000        65.2665570000
       150        150          1     0.0000        23.7461090000        25.1132130000        35.6695160000
       151        151          1     0.0000         5.2078480000        43.7013810000        62.9084340000
       152        152          1     0.0000        12.7112460000        65.6536020000        16.2410420000
       153        153          1     0.0000        25.0245610000        10.0041830000        55.6501680000
       154        154          1     0.0000        22.8883560000         8.9527460000         5.8235600000
       155        155          1     0.0000        48.7225070000        15.4560390000        39.1855840000
       156        156          1     0.0000        34.7915130000        60.1572400000        63.2482770000
       157        157          1     0.0000        56.5947650000        51.5825030000        25.8193890000
       158        158          1     0.0000        25.7891570000        15.2046010000        67.4164770000
       159        159          1     0.0000        24.8191010000        41.3983250000        66.7059430000
       160        160          1     0.0000        24.0325390000        61.0696370000        47.9735120000
       161        161          1     0.0000         1.6719560000        42.7822450000         2.8983960000
       162        162          1     0.0000        46.1420980000        32.5793890000        47.7487760000
       163        163          1     0.0000        37.8674610000        32.6349910000        40.7718560000
       164        164          1     0.0000         2.8879440000         0.1703660000        35.8006200000
       165        165          1     0.0000         9.6986950000        45.7328260000        47.5918460000
       166        166          1     0.0000        42.2180890000        40.0454720000        22.0744840000
       167        167          1     0.0000        53.7056910000        55.5757040000        41.7453860000
       168        168          1     0.0000        29.0952810000        33.2416700000        26.0195930000
       169        169          1     0.0000        38.1684790000        15.5388490000         2.2867360000
       170        170          1     0.0000         4.0342090000        18.9619150000        47.5604210000
       171        171          1     0.0000        19.6709140000        32.4385200000        33.1042030000
       172        172          1     0.0000        47.1245250000        27.3122050000        24.4479520000
       173        173          1     0.0000        59.7821730000        34.0234510000        24.6517820000
       174        174          1     0.0000        39.2324460000        58.8894120000        41.4751510000
       175        175          1     0.0000        38.9006300000        40.0582130000        37.5980390000
       176        176          1     0.0000        48.4599950000        23.3887740000        39.5215230000
       177        177          1     0.0000        66.3663480000        49.4364970000        52.1417630000
       178        178          1     0.0000        26.8047410000        31.6666540000        60.6595450000
       179        179          1     0.0000        40.9775340000        47.0822900000        11.9725680000
       180        180          1     0.0000        40.7156250000        42.8083020000        62.0936710000
       181        181          1     0.0000        44.9268870000        45.8718680000        66.9225680000
       182        182          1     0.0000        33.6089160000        40.7058610000        32.2991900000
       183        183          1     0.0000         6.6994220000        -1.0398320000        26.6130150000
       184        184          1     0.0000        40.2099970000        31.3080800000        61.6586800000
       185        185          1     0.0000        26.0496440000         4.0167940000        59.2681540000
       186        186          1     0.0000        23.7393830000        44.1380730000        14.9882040000
       187        187          1     0.0000        61.2655550000        33.6487820000        17.0919390000
       188        188          1     0.0000        30.0234460000        35.9900070000        32.5606660000
       189        189          1     0.0000         9.0184660000        11.1204990000        42.3060800000
       190        190          1     0.0000        32.8766370000         5.0677040000        19.2156030000
       191        191          1     0.0000        38.8364810000         0.0736650000        24.0551800000
       192        192          1     0.0000        39.1773290000        55.6254450000         9.5429990000
       193        193          1     0.0000        27.2551720000        -0.1635600000        24.3252230000
       194        194          1     0.0000        60.6030010000        48.3455980000        55.6360470000
       195        195          1     0.0000        29.4988390000        31.6538250000        55.4303550000
       196        196          1     0.0000        56.9650810000        37.2539360000        38.8946540000
       197        197          1     0.0000        34.8764210000         9.0195190000        54.1543980000
       198        198          1     0.0000        46.6180930000        16.8931230000        33.2035550000
       199        199          1     0.0000        57.8666180000        31.1810320000        13.0113860000
       200        200          1     0.0000        17.9815260000        15.5250530000        36.1295390000
       201        201          1     0.0000        30.2648630000        21.7633470000        33.5013430000
       202        202          1     0.0000        37.0420710000        59.8691260000        34.1369240000
       203        203          1     0.0000        54.6790260000         6.2113670000        29.6855800000
       204        204          1     0.0000        62.4978000000        40.4982670000        24.4530000000
       205        205          1     0.0000        15.4986900000        51.8147210000        60.1372740000
       206        206          1     0.0000        51.6563690000        24.7988370000        11.8581880000
       207        207          1     0.0000        22.8713400000        28.3684610000         3.1676890000
       208        208          1     0.0000        39.9844540000        31.3059000000        30.0663860000
       209        209          1     0.0000        60.1198810000        52.1168220000        22.1050040000
       210        210          1     0.0000        61.2101080000        45.4736430000        65.8790380000
       211        211          1     0.0000        60.1772950000         9.8012040000        -1.3409320000
       212        212          1     0.0000        56.0054010000        42.7650960000        53.0753040000
       213        213          1     0.0000        29.2034610000        30.3405650000         7.4264980000
       214        214          1     0.0000        32.6139760000        40.6967300000        17.4207270000
       215        215          1     0.0000        13.0347750000        22.4803680000        62.6585250000
       216        216          1     0.0000        51.7538460000        51.5746110000        52.1466230000
       217        217          1     0.0000        64.1001090000        14.9064600000         4.0701840000
       218        218          1     0.0000        66.1749070000         0.6904220000         2.1591220000
       219        219          1     0.0000        11.5605770000         3.8194420000        -0.3873690000
       220        220          1     0.0000        18.0576680000        44.2299140000        40.4660700000
       221        221          1     0.0000         8.4398580000        28.3385200000        58.7667200000
       222        222          1     0.0000        24.7725690000        17.3279020000        22.6508510000
       223        223          1     0.0000        44.7719830000        48.2281210000        32.0894990000
       224        224          1     0.0000         1.7985710000         4.7970580000        56.7723030000
       225        225          1     0.0000        53.5348660000        44.6075970000        28.4926460000
       226        226          1     0.0000        13.6543310000        23.3540470000        32.0220960000
       227        227          1     0.0000        54.4461500000        24.2030310000        58.3106720000
       228        228          1     0.0000        25.4687520000        52.0363830000        54.7604230000
       229        229          1     0.0000        20.6913530000        57.5291820000        25.9917170000
       230        230          1     0.0000        56.3757660000        36.9071080000        19.9244660000
       231        231          1     0.0000        18.5259500000         8.6885620000        35.1163870000
       232        232          1     0.0000        25.6849320000        54.1383810000         6.5820310000
       233        233          1     0.0000        22.6566890000        53.0018180000        23.6277970000
       234        234          1     0.0000        53.8465410000        17.9743090000        49.3268840000
       235        235          1     0.0000        13.2786580000        61.0767820000        45.3192450000
       236        236          1     0.0000        58.4190060000         9.5702970000        29.2420610000
       237        237          1     0.0000        32.3042860000         6.5972930000        65.3702440000
       238        238          1     0.0000        31.1730030000         5.7917780000        41.4308110000
       239        239          1     0.0000        63.6794630000         5.4517030000        63.3218260000
       240        240          1     0.0000        18.2759500000         9.2504090000        19.9914900000
       241        241          1     0.0000        32.0575380000         5.2578910000        49.8317560000
       242        242          1     0.0000        10.2619430000        21.3610440000        24.5864960000
       243        243          1     0.0000        49.3964650000        20.6850540000        57.6848680000
       244        244          1     0.0000        61.3963480000        16.9461920000        27.3297500000
       245        245          1     0.0000        63.7708340000        33.3672140000        11.9817380000
       246        246          1     0.0000        43.5709900000        13.7167840000         3.6514930000
       247        247          1     0.0000        60.5060780000        29.2552660000         7.9343710000
       248        248          1     0.0000        40.5939720000        44.7123660000        38.7085930000
       249        249          1     0.0000        47.0507360000         3.9997960000         7.3636330000
       250        250          1     0.0000        12.1836140000        54.6414500000         8.7887430000
       251        251          1     0.0000        20.2056410000         6.4947400000        55.1903160000
       252        252          1     0.0000        63.9310300000        46.5084810000        20.3682110000
       253        253          1     0.0000        59.4591530000         6.7961720000         4.1437530000
       254        254          1     0.0000        28.4927040000        32.4374000000        45.7576010000
       255        255          1     0.0000        22.7476330000        42.4000640000        44.1407320000
       256        256          1     0.0000        51.4561100000        45.7495610000        14.6170230000
       257        257          1     0.0000        54.4603710000        35.4671990000        48.6966580000
       258        258          1     0.0000        29.4849080000        27.2649130000        48.1952890000
       259        259          1     0.0000        59.2909790000        58.4168110000        45.8046090000
       260        260          1     0.0000         5.0710200000        53.3121710000         5.1204130000
       261        261          1     0.0000        22.6698690000        50.2879950000        37.0853790000
       262        262          1     0.0000        49.0009250000        37.2545610000        47.4433200000
       263        263          1     0.0000        25.0052960000        49.0179240000        42.0808430000
       264        264          1     0.0000        39.5691480000         1.7853930000        45.6100010000
       265        265          1     0.0000        59.0764490000        26.9719530000        31.6197410000
       266        266          1     0.0000        44.2288010000        49.0686250000        39.0335520000
       267        267          1     0.0000         2.6700550000         9.3761600000        21.0661380000
       268        268          1     0.0000        55.8185420000         5.3568160000        52.3969400000
       269        269          1     0.0000         3.8738380000        20.6840760000        37.7792430000
       270        270          1     0.0000        37.1587790000        11.6509870000        18.9676280000
       271        271          1     0.0000        25.7392050000         7.5901010000        24.4380900000
       272        272          1     0.0000         4.0142760000         7.3779390000        33.3701480000
       273        273          1     0.0000        26.1517710000        64.7831690000        18.6572800000
       274        274          1     0.0000         4.0173630000        28.3950400000         9.2397100000
       275        275          1     0.0000        54.7532410000        29.2419740000        50.9991050000
       276        276          1     0.0000        57.7529820000        57.0896210000        38.4548090000
       277        277          1     0.0000         4.5689740000        54.6729610000        55.1138000000