CG model

        1000 atoms

        1  atom types

          0.0000000000     58.8468650000    xlo xhi
          0.0000000000     58.8468650000    ylo yhi
          0.0000000000     58.8468650000    zlo zhi

 Masses

        1          106.1670

 Atoms

         1          1          1     0.0000        47.6449750000        23.5779770000         8.8506760000
         2          2          1     0.0000        14.7860950000        49.9426170000        24.1681000000
         3          3          1     0.0000        23.3540270000        51.5174250000         2.7561660000
         4          4          1     0.0000        54.9453600000        15.5023360000        49.0863030000
         5          5          1     0.0000        18.9156460000        59.1316200000        58.3304750000
         6          6          1     0.0000        35.7394180000        40.4224710000        12.2608880000
         7          7          1     0.0000         1.8549170000         6.8134400000         0.8711980000
         8          8          1     0.0000        13.1134920000        11.8072050000        11.4254740000
         9          9          1     0.0000        10.8590610000        16.9908920000        10.1409700000
        10         10          1     0.0000        53.9956910000        12.4362090000        15.3692730000
        11         11          1     0.0000        28.0890610000        -0.7995500000        11.2307530000
        12         12          1     0.0000         8.7287400000        43.5527360000        38.0796840000
        13         13          1     0.0000        23.2453980000        17.1678960000        36.8703380000
        14         14          1     0.0000        11.4409520000        47.8945780000        43.0523490000
        15         15          1     0.0000        23.4051980000         3.0728150000        44.1308460000
        16         16          1     0.0000        56.4478270000        37.9668860000        -0.0420850000
        17         17          1     0.0000        28.7465610000        33.7441950000         3.9887730000
        18         18          1     0.0000        34.5469270000        24.6865140000        37.0606650000
        19         19          1     0.0000        32.8503800000         8.3668090000        57.0012600000
        20         20          1     0.0000        14.1266500000        49.1056300000         6.2231670000
        21         21          1     0.0000        57.0922930000        35.3372400000         6.2846430000
        22         22          1     0.0000        41.7060160000        55.2901800000        18.4111290000
        23         23          1     0.0000        53.2108040000        39.9613430000        54.5705060000
        24         24          1     0.0000        36.4839580000        48.8613530000        22.0878370000
        25         25          1     0.0000        57.7622710000        44.0515380000        18.9105060000
        26         26          1     0.0000        33.5702070000        55.8740540000        28.9661530000
        27         27          1     0.0000        36.7815780000        25.2418110000         4.3206180000
        28         28          1     0.0000        44.3635470000        44.9263020000        48.5997480000
        29         29          1     0.0000         5.5801450000         9.5272660000        46.8808490000
        30         30          1     0.0000        50.6552810000         2.7386870000        -1.3803460000
        31         31          1     0.0000         4.9397490000        41.6369700000        44.7106910000
        32         32          1     0.0000        57.1768890000        30.3156960000        28.8731130000
        33         33          1     0.0000         9.3282010000        25.4527120000        24.2445770000
        34         34          1     0.0000         3.3916850000        45.9802460000        57.9784970000
        35         35          1     0.0000        26.3587100000        16.4326730000         0.1094670000
        36         36          1     0.0000        54.2331920000        13.6982760000        21.3466120000
        37         37          1     0.0000        20.2378150000        52.6794750000        23.0538660000
        38         38          1     0.0000        32.5911800000        16.9556990000        45.2509300000
        39         39          1     0.0000         0.5491970000        58.8202180000        44.7432040000
        40         40          1     0.0000        52.5724370000        56.4678530000        35.7699820000
        41         41          1     0.0000         8.9785370000        51.2546010000        39.3042000000
        42         42          1     0.0000        53.9623480000        55.7115750000         9.6756740000
        43         43          1     0.0000         9.6502840000        38.0513130000        45.5692920000
        44         44          1     0.0000        45.2159970000        48.8906600000         8.8592940000
        45         45          1     0.0000         5.8235460000         4.2708520000        16.0392200000
        46         46          1     0.0000        56.9745660000        25.6807380000        41.0813180000
        47         47          1     0.0000        12.1333230000        38.8890390000        16.6673990000
        48         48          1     0.0000        22.8282850000        41.7705860000        53.7580570000
        49         49          1     0.0000        19.5251480000         6.7463310000         5.6983370000
        50         50          1     0.0000         9.3388710000        35.7979020000        21.1386610000
        51         51          1     0.0000        47.6231530000        21.9024770000        27.6796750000
        52         52          1     0.0000        44.5510860000        52.7377470000        24.0837370000
        53         53          1     0.0000        46.6619900000        58.5110290000        37.5716840000
        54         54          1     0.0000         2.3347190000         1.2829810000        58.6394910000
        55         55          1     0.0000        23.9508210000        44.8777610000        42.9634840000
        56         56          1     0.0000        12.4345010000        35.9574520000        50.9871820000
        57         57          1     0.0000        18.9233660000         5.9032610000        54.6118130000
        58         58          1     0.0000        30.6050190000        51.5894850000        24.0110290000
        59         59          1     0.0000        10.7269430000         4.5402050000        43.9617210000
        60         60          1     0.0000         9.9687860000        53.9431550000         8.9562400000
        61         61          1     0.0000        31.5714360000        27.1679570000        30.7251040000
        62         62          1     0.0000        42.2513520000        29.9698580000         4.6482140000
        63         63          1     0.0000        50.8432730000        14.4521250000        55.0970480000
        64         64          1     0.0000         8.4921540000         9.9323300000        14.7540580000
        65         65          1     0.0000        41.3657290000        42.8555520000        21.1167600000
        66         66          1     0.0000        11.3449690000        20.9626020000        39.3989850000
        67         67          1     0.0000        56.6819060000        40.8155350000         6.8869730000
        68         68          1     0.0000         4.6556640000        25.8447120000        48.0594330000
        69         69          1     0.0000        54.7085620000        27.5943000000        -1.6559470000
        70         70          1     0.0000        51.4873580000         8.2495500000         4.6873480000
        71         71          1     0.0000        46.5005340000        30.2703240000         9.2676020000
        72         72          1     0.0000         6.0093710000        56.7362610000        12.9115780000
        73         73          1     0.0000        41.4548300000        52.0032870000        53.2773250000
        74         74          1     0.0000        45.5616710000        35.7061970000         7.3262160000
        75         75          1     0.0000        55.2266650000        42.0703750000        50.2182700000
        76         76          1     0.0000        44.9231380000        20.5431540000        21.6446770000
        77         77          1     0.0000        49.0643430000        18.3949580000        40.5380490000
        78         78          1     0.0000        36.7141640000         3.8810850000        18.7745200000
        79         79          1     0.0000        31.8651300000        24.8134610000        21.0139150000
        80         80          1     0.0000        16.6093260000        36.2685300000        14.2991580000
        81         81          1     0.0000        46.3604960000         0.0952240000        57.5873850000
        82         82          1     0.0000         2.3979190000        15.9825170000        44.9094390000
        83         83          1     0.0000         9.0646150000        22.9757110000        20.4376380000
        84         84          1     0.0000        22.9568110000        24.2682660000         4.5842890000
        85         85          1     0.0000         1.3851690000        32.5558710000        13.9032640000
        86         86          1     0.0000        40.0411770000        28.8670180000        14.5257560000
        87         87          1     0.0000        15.0843260000        54.2691230000        13.0914340000
        88         88          1     0.0000        31.3632560000        13.4145440000        21.8326920000
        89         89          1     0.0000        28.0664090000        40.1428820000        40.3793550000
        90         90          1     0.0000        22.7128650000        -0.1272070000        52.7545060000
        91         91          1     0.0000        48.0118320000        51.7443710000        37.3406740000
        92         92          1     0.0000        51.8059080000        41.3970290000        38.5690400000
        93         93          1     0.0000        40.8313950000        33.4992400000         7.7036370000
        94         94          1     0.0000        36.3883750000        44.7116550000        44.0792500000
        95         95          1     0.0000        32.4919840000         0.1412070000        34.6370070000
        96         96          1     0.0000        29.5018260000        22.6686660000        34.3061820000
        97         97          1     0.0000        48.6927140000        55.9767250000        30.9289220000
        98         98          1     0.0000        12.4570840000        21.8889080000        46.1330550000
        99         99          1     0.0000        20.6862520000        37.3093680000        49.7544230000
       100        100          1     0.0000        59.9046310000        58.5796540000        16.2462930000
       101        101          1     0.0000        34.1253180000        56.8218200000         2.3246370000
       102        102          1     0.0000         8.3721960000        45.1880460000        53.7842720000
       103        103          1     0.0000        19.9383390000        18.4365660000        53.5513370000
       104        104          1     0.0000         0.6019920000         2.6106870000        37.3013060000
       105        105          1     0.0000        29.7782200000        20.6876740000        42.8921500000
       106        106          1     0.0000        37.0480220000        54.9510450000        45.4748920000
       107        107          1     0.0000        48.0498600000        48.8042940000        25.0348830000
       108        108          1     0.0000        20.8355320000        53.8941280000        56.5450300000
       109        109          1     0.0000        48.0607580000        11.8139970000        16.6963750000
       110        110          1     0.0000        28.9095900000         3.8856370000        39.6897340000
       111        111          1     0.0000        47.3909360000         6.3617450000        29.2880300000
       112        112          1     0.0000         0.1400900000         4.7961480000         6.2434010000
       113        113          1     0.0000        53.3182370000        54.4727680000         2.8537760000
       114        114          1     0.0000        29.4791830000        51.5082690000         1.9793920000
       115        115          1     0.0000         3.3605540000        35.4465190000        52.2210750000
       116        116          1     0.0000        28.6583220000        55.0491200000        32.8358450000
       117        117          1     0.0000        50.0213050000        54.3588250000        24.2435080000
       118        118          1     0.0000        28.5826020000         5.2782600000        12.6270080000
       119        119          1     0.0000        30.4093030000        22.6626660000        16.1962080000
       120        120          1     0.0000        18.7529520000        11.5409840000        54.9581160000
       121        121          1     0.0000        12.9270120000        57.1631530000        43.9886210000
       122        122          1     0.0000        22.2467970000        51.4000330000        44.1145910000
       123        123          1     0.0000        14.8374570000         3.0601570000        31.0687720000
       124        124          1     0.0000         6.3544470000        20.9836890000        45.2891230000
       125        125          1     0.0000        40.9658310000         5.5562650000        47.0816490000
       126        126          1     0.0000         7.7435830000        34.1692890000        39.8389810000
       127        127          1     0.0000        41.9121270000        10.6699510000        44.6287830000
       128        128          1     0.0000         7.4208970000        36.5209900000         2.0186890000
       129        129          1     0.0000         6.5589400000        30.4664180000        51.2580920000
       130        130          1     0.0000        20.5035180000        25.0841320000        52.8163920000
       131        131          1     0.0000        19.5340740000        11.6620390000         2.5138370000
       132        132          1     0.0000        19.7568580000         6.6169590000        36.7279150000
       133        133          1     0.0000         5.8678450000        19.1329510000        26.3330950000
       134        134          1     0.0000        44.7601630000        27.3401320000        46.5839650000
       135        135          1     0.0000        22.5651840000        12.4133670000        45.1319470000
       136        136          1     0.0000        45.2445700000        26.9770740000        40.3354930000
       137        137          1     0.0000        33.8594910000        51.7176960000        33.7476650000
       138        138          1     0.0000        48.9974320000         1.3456450000         5.6869640000
       139        139          1     0.0000        28.9076550000        57.4553700000        39.2559730000
       140        140          1     0.0000        26.7822720000        37.7033130000        54.3410590000
       141        141          1     0.0000        29.0387130000        28.9764940000         4.6552860000
       142        142          1     0.0000        57.8636430000        47.9715610000        22.5065160000
       143        143          1     0.0000        47.4301800000        13.8790100000         8.1044410000
       144        144          1     0.0000         5.6127210000        40.1812510000        56.2179620000
       145        145          1     0.0000        10.1497770000        31.8750460000        34.4221390000
       146        146          1     0.0000        29.3750700000        20.4385750000        10.4710810000
       147        147          1     0.0000        39.3753750000        19.0738140000        53.8766920000
       148        148          1     0.0000        39.7649230000        41.3475570000        50.4925750000
       149        149          1     0.0000        57.1745370000        49.4046920000        39.4530190000
       150        150          1     0.0000         1.3924440000        19.2738200000        40.1850320000
       151        151          1     0.0000        17.6554260000         1.0822010000        48.6954840000
       152        152          1     0.0000        44.0334920000        39.7540420000        16.9937850000
       153        153          1     0.0000        20.7714570000        14.2715960000        21.2425950000
       154        154          1     0.0000        17.9718920000        37.0208560000         3.3094700000
       155        155          1     0.0000        23.3977110000        21.4209180000        23.7605750000
       156        156          1     0.0000        23.7505910000         9.4423150000        25.5370030000
       157        157          1     0.0000        32.7588430000        36.4178360000        49.1291750000
       158        158          1     0.0000        42.6123880000         5.6238340000        14.1788350000
       159        159          1     0.0000        37.4399580000        40.2865100000        18.9034670000
       160        160          1     0.0000        17.8064950000        31.4179710000        13.5887250000
       161        161          1     0.0000        15.1359210000        30.5674950000        32.1517570000
       162        162          1     0.0000        26.2075480000        50.8115670000        19.0148130000
       163        163          1     0.0000        58.1512700000        52.0044450000        34.7845850000
       164        164          1     0.0000        46.5458560000        11.3242060000        57.0011300000
       165        165          1     0.0000        34.5334940000        56.2912810000        52.4246920000
       166        166          1     0.0000        33.5405190000        35.8887700000        56.6044990000
       167        167          1     0.0000        34.2469400000         3.1674440000         4.5635750000
       168        168          1     0.0000        19.8575490000        58.4582380000        27.0999500000
       169        169          1     0.0000        42.3866840000        25.2430080000        18.6094270000
       170        170          1     0.0000         8.8599270000        42.1951360000        23.3812960000
       171        171          1     0.0000        38.0433730000        15.9783670000        12.3936050000
       172        172          1     0.0000        32.4611540000        18.0084170000        52.2561610000
       173        173          1     0.0000        48.7093610000        29.8816250000         5.2620280000
       174        174          1     0.0000        23.3695200000        34.1209180000        24.6950470000
       175        175          1     0.0000         8.1210390000        34.4813470000         9.0934130000
       176        176          1     0.0000        46.3168320000         8.9960660000        45.6048420000
       177        177          1     0.0000        12.0224770000        28.9854590000        -0.5918500000
       178        178          1     0.0000        11.3277890000        16.3597440000        28.1893860000
       179        179          1     0.0000        47.7139880000        31.9789020000        38.0818700000
       180        180          1     0.0000        50.5994250000         8.5499560000        58.0954750000
       181        181          1     0.0000        50.6103010000        53.9700870000        14.8533420000
       182        182          1     0.0000         9.8875570000        37.5891650000        32.9106420000
       183        183          1     0.0000        47.9746280000        22.0862440000        17.4646130000
       184        184          1     0.0000        28.1413070000         0.3091830000         5.2997890000
       185        185          1     0.0000         6.3028480000        14.4721510000        18.4241740000
       186        186          1     0.0000        16.2194490000        57.5100560000        37.2137900000
       187        187          1     0.0000        58.0955830000        56.9351030000         3.4085870000
       188        188          1     0.0000        12.2167190000        19.9069980000        15.5978880000
       189        189          1     0.0000         5.8557290000        -0.2585030000        48.2204290000
       190        190          1     0.0000        18.3898580000        22.5793950000        57.3077490000
       191        191          1     0.0000         2.1707050000        50.1476850000        17.6237340000
       192        192          1     0.0000        37.6874750000        21.5276420000        43.0461970000
       193        193          1     0.0000        32.2489200000        55.5314330000        48.6600390000
       194        194          1     0.0000        46.1375720000         4.1151280000        23.4328780000
       195        195          1     0.0000        47.3411690000        46.0427100000         2.6329300000
       196        196          1     0.0000        52.6687910000        23.2314930000        23.3659730000
       197        197          1     0.0000         5.9052070000        15.3543670000        30.8783370000
       198        198          1     0.0000        15.0435670000        27.0313490000        19.1128570000
       199        199          1     0.0000        29.7194080000        22.9116340000        27.6808440000
       200        200          1     0.0000        22.9532310000         5.4837610000         1.7573460000
       201        201          1     0.0000        24.3124520000        23.5180480000        11.4634660000
       202        202          1     0.0000        57.7350100000         7.8167350000        39.3878850000
       203        203          1     0.0000        39.6713780000        58.1770780000        36.3206760000
       204        204          1     0.0000        36.5462130000        33.5931460000        44.9184250000
       205        205          1     0.0000        43.5540030000        59.4666510000        26.7405050000
       206        206          1     0.0000         4.0264870000        46.0878300000        31.4176520000
       207        207          1     0.0000        24.9077460000        48.5304950000        23.6355160000
       208        208          1     0.0000        33.3136050000        36.9241590000        24.9236200000
       209        209          1     0.0000        31.1165100000         0.7415130000        58.3420410000
       210        210          1     0.0000        35.3202320000        51.4660250000         4.1795990000
       211        211          1     0.0000        25.2737090000        25.1883700000        42.6030790000
       212        212          1     0.0000        47.5082390000        38.0564980000        24.3121590000
       213        213          1     0.0000        47.9125820000        23.5312870000         3.5221640000
       214        214          1     0.0000        15.5356960000        39.0988930000        46.4833130000
       215        215          1     0.0000        48.0735670000        14.3950420000        48.4406340000
       216        216          1     0.0000         7.4267940000        29.9242380000        24.9740530000
       217        217          1     0.0000        20.1947130000        53.9133200000        10.4037880000
       218        218          1     0.0000        34.6992810000        42.9304740000        25.9596060000
       219        219          1     0.0000        40.9831210000        13.5339280000         8.9105750000
       220        220          1     0.0000        59.4157270000        34.1250010000        34.1017450000
       221        221          1     0.0000        37.8604650000        52.6347620000        38.9376450000
       222        222          1     0.0000        31.9257170000        38.3015290000         8.6882230000
       223        223          1     0.0000        59.4604750000        58.1698920000        10.6231340000
       224        224          1     0.0000        39.4560230000        49.8130200000         5.9511250000
       225        225          1     0.0000        34.4734670000        44.2776120000        19.7032340000
       226        226          1     0.0000         6.2418520000        18.8910130000        33.9161860000
       227        227          1     0.0000        17.1918560000        55.5744370000        53.3843230000
       228        228          1     0.0000        23.9067300000        16.1552760000        51.1149100000
       229        229          1     0.0000         8.7207560000        48.8087110000        20.8189480000
       230        230          1     0.0000        48.4045510000        17.2498930000        12.9519160000
       231        231          1     0.0000        34.5070080000        48.2407640000        10.5509210000
       232        232          1     0.0000        42.7684540000        42.2517660000        43.1860860000
       233        233          1     0.0000        55.5805210000        52.2447430000        20.3627230000
       234        234          1     0.0000         5.5196700000        43.0475120000        28.0753240000
       235        235          1     0.0000        28.0946490000        10.5791070000        15.6398150000
       236        236          1     0.0000        41.3986330000        31.9270800000        36.3540480000
       237        237          1     0.0000        19.5645860000        48.7802480000        33.6352410000
       238        238          1     0.0000        48.8589030000        16.8408580000        24.2278780000
       239        239          1     0.0000         7.1738810000        24.5026250000        -0.6017420000
       240        240          1     0.0000        56.5801870000        10.4825980000        33.6428380000
       241        241          1     0.0000        16.3414160000        15.2861540000        35.2701890000
       242        242          1     0.0000        38.4377910000         8.2843320000         4.9354750000
       243        243          1     0.0000        41.7837670000        36.5838940000        21.1210070000
       244        244          1     0.0000        37.9618540000        12.3542280000        50.0425870000
       245        245          1     0.0000        33.0498630000        21.8780400000        47.7749430000
       246        246          1     0.0000        52.4985820000        16.2700960000        36.5284530000
       247        247          1     0.0000        21.0052370000        14.5828330000        32.7737440000
       248        248          1     0.0000        29.0175910000        43.8729210000         4.9736400000
       249        249          1     0.0000        11.9847540000         6.8308370000        33.3131080000
       250        250          1     0.0000         4.5746500000        34.3120850000        47.1364420000
       251        251          1     0.0000        54.4550080000         2.1150530000        31.4923670000
       252        252          1     0.0000        40.8572290000        37.0882610000         1.2889680000
       253        253          1     0.0000         2.4239520000        34.9530790000        40.7835530000
       254        254          1     0.0000        20.7743150000        27.2678100000        43.5978630000
       255        255          1     0.0000        10.2473520000         5.4690880000         4.3790800000
       256        256          1     0.0000         6.2674310000        53.6950340000        28.3571940000
       257        257          1     0.0000        19.4688670000        19.7301440000        15.3728990000
       258        258          1     0.0000        19.4729170000         9.0091410000        18.5010970000
       259        259          1     0.0000        15.3388750000        34.8940880000         7.9558500000
       260        260          1     0.0000        21.2328770000        36.6758410000         7.1429540000
       261        261          1     0.0000        16.9131780000         9.4633740000        49.5274160000
       262        262          1     0.0000        24.4145550000        45.9258760000        36.4316840000
       263        263          1     0.0000        45.6686580000        28.9085970000        53.7223210000
       264        264          1     0.0000        43.3759400000         9.6377850000        29.6396130000
       265        265          1     0.0000        25.4330410000         8.1766600000        43.5722340000
       266        266          1     0.0000        42.1037080000         2.2184980000        55.6649340000
       267        267          1     0.0000        14.9732870000        22.5019200000        31.4121230000
       268        268          1     0.0000        13.8737950000        46.8250710000        30.0589130000
       269        269          1     0.0000        53.4729500000        40.1488240000        32.7135330000
       270        270          1     0.0000        47.2023350000        35.1788420000        19.4066580000
       271        271          1     0.0000        27.6254000000        27.3061400000        24.3310380000
       272        272          1     0.0000        34.7336030000        14.5973620000        17.0404280000
       273        273          1     0.0000        14.6664040000        56.5620460000         5.5195660000
       274        274          1     0.0000        23.5046040000        39.8386080000        46.1819590000
       275        275          1     0.0000        26.6082220000        37.0748520000         7.1207880000
       276        276          1     0.0000        17.6086540000        48.2817130000        47.8588460000
       277        277          1     0.0000        50.9469570000         1.0832810000        52.6022040000